<?xml version="1.0" encoding="UTF-8"?>
<VTKFile type="UnstructuredGrid" version="0.1" byte_order="LittleEndian">
<UnstructuredGrid>
<Piece NumberOfPoints="0" NumberOfCells="0">
<PointData>
<DataArray type="Float64" Name="Data" Format="ascii">

</DataArray>
<DataArray type="Float64" Name="x-coordinate" Format="ascii">

</DataArray>
<DataArray type="Float64" Name="y-coordinate" Format="ascii">

</DataArray>
</PointData>
<CellData/>
<Points>
<DataArray type="Float64" NumberOfComponents="3" Format="ascii">

</DataArray>
</Points>
<Cells>
<DataArray type="Int32" Name="connectivity" Format="ascii">

</DataArray>
<DataArray type="Int32" Name="offsets" Format="ascii">

</DataArray>
<DataArray type="UInt8" Name="types" Format="ascii">

</DataArray>
</Cells>
</Piece>
</UnstructuredGrid>
</VTKFile>
